Generated by the pyWannier90. Date: Wed Aug 23 10:41:15 2023

CRYSTAL
PRIMVEC
10.0000000   0.0000000   0.0000000
 0.0000000  10.0000000   0.0000000
 0.0000000   0.0000000  10.0000000
CONVVEC
10.0000000   0.0000000   0.0000000
 0.0000000  10.0000000   0.0000000
 0.0000000   0.0000000  10.0000000
PRIMCOORD
  2   1
H  5.0000000  5.0000000  4.0000000
H  5.0000000  5.0000000  5.0000000


BEGIN_BLOCK_DATAGRID_3D
3D_field
BEGIN_DATAGRID_3D_UNKNOWN
      50        50     50
   -0.2000000  -0.2000000  -0.2000000
    9.8000000   0.0000000   0.0000000
    0.0000000   9.8000000   0.0000000
    0.0000000   0.0000000   9.8000000
  -5.85865e-19  -1.83542e-19  -5.85865e-19  -1.78355e-18  -5.17847e-18  -1.56829e-17  -4.14161e-17  -1.04319e-16  -2.50600e-16  -5.74151e-16  -1.25458e-15  -2.61453e-15  -5.19657e-15   6.88761e-14   1.24521e-13   2.14706e-13   3.53079e-13   5.53763e-13   9.16955e-13   1.30814e-12   1.77985e-12   2.30962e-12   2.85841e-12   3.37390e-12   3.79811e-12   4.07783e-12   4.12936e-12   4.07780e-12   3.79811e-12   3.37390e-12   2.85841e-12   2.30962e-12   1.77985e-12   1.30814e-12   9.16955e-13   5.53763e-13   3.53079e-13   2.14706e-13   1.24521e-13   6.88761e-14   3.63345e-14  -2.61453e-15  -1.25458e-15  -5.74151e-16  -2.50600e-16  -1.04319e-16  -4.14161e-17  -1.56820e-17  -5.66320e-18  -1.78355e-18
  -1.83542e-19   0.00000e+00  -1.83542e-19  -1.11752e-18  -3.24465e-18  -8.98482e-18  -2.37288e-17  -5.97680e-17  -1.43578e-16  -3.28952e-16  -7.18793e-16  -1.49796e-15  -2.97731e-15  -5.64381e-15   3.43862e-14   5.92906e-14   2.23935e-13   3.51217e-13   5.25357e-13   7.49479e-13   1.01974e-12   1.32327e-12   1.63769e-12   1.93303e-12   2.17608e-12   2.33634e-12   2.39234e-12   2.33634e-12   2.17608e-12   1.93303e-12   1.63769e-12   1.32327e-12   1.01974e-12   7.49479e-13   5.25357e-13   3.51217e-13   2.23935e-13   5.92906e-14   3.43862e-14   1.90200e-14   1.00337e-14  -1.49796e-15  -7.18793e-16  -3.28952e-16  -1.43578e-16  -5.97680e-17  -2.37288e-17  -8.98482e-18  -3.24465e-18  -1.11752e-18
  -5.85865e-19   0.00000e+00  -5.85865e-19  -1.78355e-18  -5.17847e-18  -1.56820e-17  -4.14161e-17  -1.04319e-16  -2.50600e-16  -5.74151e-16  -1.25458e-15  -2.61453e-15   3.63345e-14   6.88761e-14   1.24521e-13   2.14706e-13   3.90855e-13   6.13012e-13   9.16955e-13   1.30814e-12   1.77985e-12   2.30962e-12   2.85841e-12   3.37390e-12   3.79811e-12   4.07783e-12   4.17557e-12   4.07783e-12   3.79811e-12   3.33657e-12   2.85841e-12   2.30962e-12   1.77985e-12   1.30814e-12   9.16955e-13   5.53763e-13   3.53079e-13   2.14706e-13   1.24521e-13   6.88761e-14   3.63345e-14  -2.61453e-15  -1.25458e-15  -5.74151e-16  -2.50600e-16  -1.04319e-16  -4.14161e-17  -1.56820e-17  -5.66320e-18  -1.95050e-18
  -1.95050e-18  -1.11752e-18  -1.95050e-18  -5.42969e-18  -1.57649e-17  -4.40372e-17  -1.16302e-16  -2.92940e-16  -7.03717e-16  -1.61229e-15  -3.52301e-15  -7.34194e-15   1.11841e-13   2.12007e-13   3.83287e-13   6.60884e-13   1.08681e-12   1.70453e-12   2.54967e-12   3.63739e-12   4.94903e-12   6.34430e-12   7.85175e-12   9.36070e-12   1.05376e-11   1.13137e-11   1.15849e-11   1.13137e-11   1.05376e-11   9.36070e-12   8.02677e-12   6.48571e-12   4.99805e-12   3.67341e-12   2.57493e-12   1.70453e-12   1.08681e-12   6.60884e-13   3.83287e-13   2.12007e-13   1.11841e-13  -7.34194e-15   2.70011e-14  -1.61229e-15  -7.03717e-16  -2.92940e-16  -1.16302e-16  -4.40374e-17  -1.57649e-17  -5.47730e-18
  -5.66320e-18  -3.24465e-18  -5.66320e-18  -1.57649e-17  -4.58101e-17  -1.26749e-16  -3.34744e-16  -8.43151e-16  -2.02712e-15   3.59146e-14   7.84769e-14   1.63545e-13   3.25058e-13   6.16184e-13   1.11400e-12   1.92082e-12   3.15874e-12   4.95412e-12   7.41046e-12   1.05718e-11   1.43840e-11   1.84395e-11   2.28209e-11   2.69618e-11   3.03517e-11   3.25870e-11   3.33681e-11   3.25870e-11   3.03517e-11   2.69618e-11   2.28209e-11   1.84395e-11   1.42100e-11   1.04439e-11   7.32077e-12   4.95412e-12   3.15874e-12   1.92082e-12   1.11400e-12   6.16184e-13   3.25058e-13   1.63545e-13   7.84769e-14  -4.64435e-15  -2.02712e-15  -8.43843e-16  -3.35018e-16  -1.26853e-16  -4.57725e-17  -1.59030e-17
  -1.56820e-17  -8.98482e-18  -1.56820e-17  -4.40372e-17  -1.26853e-16  -3.50983e-16  -9.26944e-16  -2.33478e-15  -5.60917e-15   9.94611e-14   2.17332e-13   4.52920e-13   9.00210e-13   1.70645e-12   3.08509e-12   5.31948e-12   8.74774e-12   1.35538e-11   2.02740e-11   2.89231e-11   3.93528e-11   5.10661e-11   6.31998e-11   7.45976e-11   8.39769e-11   9.01614e-11   9.23225e-11   9.01614e-11   8.39769e-11   7.45976e-11   6.31998e-11   5.10661e-11   3.93528e-11   2.89231e-11   2.02740e-11   1.37198e-11   8.74774e-12   5.31948e-12   3.08509e-12   1.70645e-12   9.00210e-13   4.52920e-13   2.17332e-13   9.94621e-14   4.34123e-14  -2.33478e-15  -9.26944e-16  -3.50983e-16  -1.26853e-16  -4.40372e-17
  -4.14161e-17  -2.37288e-17  -4.14161e-17  -1.16302e-16  -3.35018e-16  -9.27015e-16  -2.44805e-15   4.77266e-14   1.14651e-13   2.62678e-13   5.73978e-13   1.19617e-12   2.37747e-12   4.50675e-12   8.04917e-12   1.38788e-11   2.28233e-11   3.57958e-11   5.35440e-11   7.63863e-11   1.03931e-10   1.34866e-10   1.66912e-10   1.97013e-10   2.21784e-10   2.38118e-10   2.43825e-10   2.38118e-10   2.21784e-10   1.97013e-10   1.66912e-10   1.34866e-10   1.03931e-10   7.63863e-11   5.35440e-11   3.57958e-11   2.28233e-11   1.38788e-11   8.04917e-12   4.50675e-12   2.37747e-12   1.19617e-12   5.73978e-13   2.62678e-13   1.14651e-13  -6.16614e-15  -2.44805e-15  -9.26944e-16  -3.35018e-16  -1.16302e-16
  -1.04319e-16  -5.97680e-17  -1.04319e-16  -2.92940e-16  -8.43843e-16  -2.33496e-15  -6.16614e-15   1.20214e-13   2.88784e-13   6.61633e-13   1.44573e-12   3.01290e-12   5.98836e-12   1.13516e-11   2.02742e-11   3.49579e-11   5.74873e-11   9.01623e-11   1.34866e-10   1.92402e-10   2.61782e-10   3.39701e-10   4.20417e-10   4.96237e-10   5.58629e-10   5.99770e-10   6.14146e-10   5.99770e-10   5.58629e-10   4.96237e-10   4.20417e-10   3.39701e-10   2.61782e-10   1.92402e-10   1.34866e-10   9.01623e-11   5.74873e-11   3.49579e-11   2.02742e-11   1.13516e-11   5.98836e-12   3.01290e-12   1.44573e-12   6.61633e-13   2.88784e-13   1.20214e-13   4.77266e-14  -2.33496e-15  -8.43843e-16  -2.92940e-16
  -2.50600e-16  -1.43578e-16  -2.50600e-16  -7.03717e-16  -2.02712e-15  -5.60917e-15   1.14651e-13   2.88784e-13   6.93731e-13   1.58941e-12   3.47302e-12   7.23776e-12   1.42115e-11   2.69394e-11   4.87038e-11   8.39777e-11   1.38099e-10   2.16593e-10   3.23984e-10   4.62198e-10   6.28867e-10   8.16048e-10   1.00995e-09   1.19209e-09   1.34197e-09   1.44080e-09   1.47534e-09   1.44080e-09   1.34197e-09   1.19209e-09   1.00995e-09   8.16048e-10   6.28867e-10   4.62198e-10   3.23984e-10   2.16593e-10   1.38099e-10   8.39777e-11   4.87038e-11   2.69394e-11   1.42115e-11   7.23776e-12   3.47302e-12   1.58941e-12   6.93731e-13   2.88784e-13   1.14651e-13  -5.60917e-15  -2.02712e-15  -7.03717e-16
  -5.74151e-16  -3.28952e-16  -5.74151e-16  -1.61229e-15   3.59146e-14   9.94611e-14   2.62678e-13   6.61633e-13   1.58941e-12   3.64151e-12   7.95705e-12   1.65825e-11   3.25600e-11   6.17210e-11   1.11586e-10   1.92402e-10   3.16400e-10   4.96237e-10   7.42280e-10   1.05894e-09   1.44080e-09   1.86965e-09   2.31390e-09   2.73119e-09   3.07459e-09   3.30102e-09   3.38015e-09   3.30102e-09   3.07459e-09   2.73119e-09   2.31390e-09   1.86965e-09   1.44080e-09   1.05894e-09   7.42280e-10   4.96237e-10   3.16400e-10   1.92402e-10   1.11586e-10   6.17210e-11   3.25600e-11   1.65825e-11   7.95705e-12   3.64151e-12   1.58941e-12   6.61633e-13   2.62678e-13   9.94611e-14   3.59146e-14  -1.61229e-15
  -1.25458e-15  -7.18793e-16  -1.25458e-15  -3.52301e-15   7.84769e-14   2.17332e-13   5.73978e-13   1.44573e-12   3.47302e-12   7.95705e-12   1.71765e-11   3.57958e-11   7.11468e-11   1.34866e-10   2.43825e-10   4.20417e-10   6.91364e-10   1.08433e-09   1.62195e-09   2.31390e-09   3.14829e-09   4.08537e-09   5.05609e-09   5.96793e-09   6.71829e-09   7.21306e-09   7.38595e-09   7.21306e-09   6.71829e-09   5.96793e-09   5.05609e-09   4.08537e-09   3.14829e-09   2.31390e-09   1.62195e-09   1.08433e-09   6.91364e-10   4.20417e-10   2.43825e-10   1.34866e-10   7.11468e-11   3.57958e-11   1.71765e-11   7.95705e-12   3.47302e-12   1.44573e-12   5.73978e-13   2.17332e-13   7.84769e-14  -3.52301e-15
  -2.61453e-15  -1.49796e-15  -2.61453e-15   5.62701e-14   1.63545e-13   4.52920e-13   1.19617e-12   3.01290e-12   7.23776e-12   1.65825e-11   3.57958e-11   7.45983e-11   1.48270e-10   2.81061e-10   5.08131e-10   8.76147e-10   1.44080e-09   2.25973e-09   3.38015e-09   4.82215e-09   6.56102e-09   8.51390e-09   1.05369e-08   1.24371e-08   1.40009e-08   1.50320e-08   1.53923e-08   1.50320e-08   1.40009e-08   1.24371e-08   1.05369e-08   8.51390e-09   6.56102e-09   4.82215e-09   3.38015e-09   2.25973e-09   1.44080e-09   8.76147e-10   5.08131e-10   2.81061e-10   1.48270e-10   7.45983e-11   3.57958e-11   1.65825e-11   7.23776e-12   3.01290e-12   1.19617e-12   4.52920e-13   1.63545e-13   5.62701e-14
  -5.19657e-15  -2.97731e-15  -5.19657e-15   1.11841e-13   3.25058e-13   9.00210e-13   2.37747e-12   5.98836e-12   1.42115e-11   3.25600e-11   7.11468e-11   1.48270e-10   2.94696e-10   5.58629e-10   1.00995e-09   1.74140e-09   2.86369e-09   4.49138e-09   6.71829e-09   9.58437e-09   1.30405e-08   1.69220e-08   2.09428e-08   2.47197e-08   2.78278e-08   2.98772e-08   3.05933e-08   2.98772e-08   2.78278e-08   2.47197e-08   2.09428e-08   1.69220e-08   1.30405e-08   9.58437e-09   6.71829e-09   4.49138e-09   2.86369e-09   1.74140e-09   1.00995e-09   5.58629e-10   2.94696e-10   1.48270e-10   7.11468e-11   3.25600e-11   1.42115e-11   5.98836e-12   2.37747e-12   9.00210e-13   3.25058e-13   1.11841e-13
   6.88761e-14  -5.64381e-15   6.88761e-14   2.12007e-13   6.16184e-13   1.70645e-12   4.50675e-12   1.12142e-11   2.69394e-11   6.17210e-11   1.34866e-10   2.81061e-10   5.58629e-10   1.05894e-09   1.91447e-09   3.30102e-09   5.42845e-09   8.51390e-09   1.27353e-08   1.81682e-08   2.47197e-08   3.20775e-08   3.96993e-08   4.68589e-08   5.27506e-08   5.66354e-08   5.79930e-08   5.66354e-08   5.27506e-08   4.68589e-08   3.96993e-08   3.20775e-08   2.47197e-08   1.81682e-08   1.27353e-08   8.51390e-09   5.42845e-09   3.30102e-09   1.91447e-09   1.05894e-09   5.58629e-10   2.81061e-10   1.34866e-10   6.17210e-11   2.69394e-11   1.13516e-11   4.50675e-12   1.70645e-12   6.16184e-13   2.12007e-13
   1.24521e-13  -1.02035e-14   1.24521e-13   3.83287e-13   1.11400e-12   3.08509e-12   8.14777e-12   2.02742e-11   4.87038e-11   1.11586e-10   2.43825e-10   5.08131e-10   1.00995e-09   1.91447e-09   3.46117e-09   5.96793e-09   9.81410e-09   1.53923e-08   2.30241e-08   3.28464e-08   4.46908e-08   5.79930e-08   7.17725e-08   8.47164e-08   9.53679e-08   1.02391e-07   1.04846e-07   1.02391e-07   9.53679e-08   8.47164e-08   7.17725e-08   5.79930e-08   4.46908e-08   3.28464e-08   2.30241e-08   1.53923e-08   9.81410e-09   5.96793e-09   3.46117e-09   1.91447e-09   1.00995e-09   5.08131e-10   2.43825e-10   1.11586e-10   4.87038e-11   2.02742e-11   8.14777e-12   3.08509e-12   1.11400e-12   3.83287e-13
   2.14706e-13   1.36174e-13   2.14706e-13   6.60884e-13   1.92082e-12   5.31948e-12   1.38788e-11   3.49579e-11   8.39777e-11   1.92402e-10   4.20417e-10   8.76147e-10   1.74140e-09   3.30102e-09   5.96793e-09   1.02902e-08   1.69220e-08   2.65402e-08   3.96993e-08   5.66354e-08   7.70583e-08   9.99945e-08   1.23754e-07   1.46072e-07   1.64438e-07   1.76549e-07   1.80780e-07   1.76549e-07   1.64438e-07   1.46072e-07   1.23754e-07   9.99945e-08   7.70583e-08   5.66354e-08   3.96993e-08   2.65402e-08   1.69220e-08   1.02902e-08   5.96793e-09   3.30102e-09   1.74140e-09   8.76147e-10   4.20417e-10   1.92402e-10   8.39777e-11   3.49579e-11   1.40488e-11   5.31948e-12   1.92082e-12   6.60884e-13
   3.53079e-13   2.23935e-13   3.53079e-13   1.08681e-12   3.15874e-12   8.74774e-12   2.28233e-11   5.74873e-11   1.38099e-10   3.16400e-10   6.91364e-10   1.44080e-09   2.86369e-09   5.42845e-09   9.81410e-09   1.69220e-08   2.78278e-08   4.36447e-08   6.52845e-08   9.31355e-08   1.26720e-07   1.64438e-07   2.03510e-07   2.40212e-07   2.70415e-07   2.90329e-07   2.97289e-07   2.90329e-07   2.70415e-07   2.40212e-07   2.03510e-07   1.64438e-07   1.26720e-07   9.31355e-08   6.52845e-08   4.36447e-08   2.78278e-08   1.69220e-08   9.81410e-09   5.42845e-09   2.86369e-09   1.44080e-09   6.91364e-10   3.16400e-10   1.38099e-10   5.74873e-11   2.28233e-11   8.74774e-12   3.15874e-12   1.08681e-12
   6.13012e-13   3.51217e-13   6.13012e-13   1.70453e-12   4.95412e-12   1.35538e-11   3.57958e-11   9.01623e-11   2.16593e-10   4.96237e-10   1.08433e-09   2.25973e-09   4.49138e-09   8.51390e-09   1.53923e-08   2.65402e-08   4.36447e-08   6.84517e-08   1.02391e-07   1.46072e-07   1.98746e-07   2.57903e-07   3.19183e-07   3.76746e-07   4.24114e-07   4.55349e-07   4.66263e-07   4.55349e-07   4.24114e-07   3.76746e-07   3.19183e-07   2.57903e-07   1.98746e-07   1.46072e-07   1.02391e-07   6.84517e-08   4.36447e-08   2.65402e-08   1.53923e-08   8.51390e-09   4.49138e-09   2.25973e-09   1.08433e-09   4.96237e-10   2.16593e-10   9.01623e-11   3.57958e-11   1.37198e-11   4.95412e-12   1.70453e-12
   9.16955e-13   5.25357e-13   9.16955e-13   2.54967e-12   7.41046e-12   2.02740e-11   5.35440e-11   1.34866e-10   3.23984e-10   7.42280e-10   1.62195e-09   3.38015e-09   6.71829e-09   1.27353e-08   2.30241e-08   3.96993e-08   6.52845e-08   1.02391e-07   1.53159e-07   2.18498e-07   2.97289e-07   3.85776e-07   4.77439e-07   5.63543e-07   6.34398e-07   6.81119e-07   6.97445e-07   6.81119e-07   6.34398e-07   5.63543e-07   4.77439e-07   3.85776e-07   2.97289e-07   2.18498e-07   1.53159e-07   1.02391e-07   6.52845e-08   3.96993e-08   2.30241e-08   1.27353e-08   6.71829e-09   3.38015e-09   1.62195e-09   7.42280e-10   3.23984e-10   1.34866e-10   5.35440e-11   2.02740e-11   7.41046e-12   2.54967e-12
   1.30814e-12   7.49479e-13   1.30814e-12   3.63739e-12   1.05718e-11   2.89231e-11   7.63863e-11   1.92402e-10   4.62198e-10   1.05894e-09   2.31390e-09   4.82215e-09   9.58437e-09   1.81682e-08   3.28464e-08   5.66354e-08   9.31355e-08   1.46072e-07   2.18498e-07   3.11711e-07   4.24114e-07   5.50351e-07   6.81119e-07   8.03955e-07   9.05038e-07   9.71691e-07   9.94981e-07   9.71691e-07   9.05038e-07   8.03955e-07   6.81119e-07   5.50351e-07   4.24114e-07   3.11711e-07   2.18498e-07   1.46072e-07   9.31355e-08   5.66354e-08   3.28464e-08   1.81682e-08   9.58437e-09   4.82215e-09   2.31390e-09   1.05894e-09   4.62198e-10   1.92402e-10   7.63863e-11   2.89231e-11   1.05718e-11   3.63739e-12
   1.77985e-12   1.01974e-12   1.77985e-12   4.94903e-12   1.43840e-11   3.93528e-11   1.03931e-10   2.61782e-10   6.28867e-10   1.44080e-09   3.14829e-09   6.56102e-09   1.30405e-08   2.47197e-08   4.46908e-08   7.70583e-08   1.26720e-07   1.98746e-07   2.97289e-07   4.24114e-07   5.77051e-07   7.48809e-07   9.26732e-07   1.09386e-06   1.23140e-06   1.32208e-06   1.35377e-06   1.32208e-06   1.23140e-06   1.09386e-06   9.26732e-07   7.48809e-07   5.77051e-07   4.24114e-07   2.97289e-07   1.98746e-07   1.26720e-07   7.70583e-08   4.46908e-08   2.47197e-08   1.30405e-08   6.56102e-09   3.14829e-09   1.44080e-09   6.28867e-10   2.61782e-10   1.03931e-10   3.93528e-11   1.42100e-11   4.94903e-12
   2.30962e-12   1.32327e-12   2.30962e-12   6.42210e-12   1.84395e-11   5.10661e-11   1.34866e-10   3.39701e-10   8.16048e-10   1.86965e-09   4.08537e-09   8.51390e-09   1.69220e-08   3.20775e-08   5.79930e-08   9.99945e-08   1.64438e-07   2.57903e-07   3.85776e-07   5.50351e-07   7.48809e-07   9.71691e-07   1.20257e-06   1.41945e-06   1.59792e-06   1.71560e-06   1.75672e-06   1.71560e-06   1.59792e-06   1.41945e-06   1.20257e-06   9.71691e-07   7.48809e-07   5.50351e-07   3.85776e-07   2.57903e-07   1.64438e-07   9.99945e-08   5.79930e-08   3.20775e-08   1.69220e-08   8.51390e-09   4.08537e-09   1.86965e-09   8.16048e-10   3.39701e-10   1.34866e-10   5.10661e-11   1.84395e-11   6.42210e-12
   2.85841e-12   1.63769e-12   2.85841e-12   7.94804e-12   2.28209e-11   6.31998e-11   1.66912e-10   4.20417e-10   1.00995e-09   2.31390e-09   5.05609e-09   1.05369e-08   2.09428e-08   3.96993e-08   7.17725e-08   1.23754e-07   2.03510e-07   3.19183e-07   4.77439e-07   6.81119e-07   9.26732e-07   1.20257e-06   1.48831e-06   1.75672e-06   1.97760e-06   2.12324e-06   2.17413e-06   2.12324e-06   1.97760e-06   1.75672e-06   1.48831e-06   1.20257e-06   9.26732e-07   6.81119e-07   4.77439e-07   3.19183e-07   2.03510e-07   1.23754e-07   7.17725e-08   3.96993e-08   2.09428e-08   1.05369e-08   5.05609e-09   2.31390e-09   1.00995e-09   4.20417e-10   1.66912e-10   6.31998e-11   2.28209e-11   8.02677e-12
   3.37390e-12   1.93303e-12   3.37390e-12   9.47436e-12   2.69365e-11   7.45976e-11   1.97013e-10   4.96237e-10   1.19209e-09   2.73119e-09   5.96793e-09   1.24371e-08   2.47197e-08   4.68589e-08   8.47164e-08   1.46072e-07   2.40212e-07   3.76746e-07   5.63543e-07   8.03955e-07   1.09386e-06   1.41945e-06   1.75672e-06   2.07354e-06   2.33425e-06   2.50615e-06   2.56623e-06   2.50615e-06   2.33425e-06   2.07354e-06   1.75672e-06   1.41945e-06   1.09386e-06   8.03955e-07   5.63543e-07   3.76746e-07   2.40212e-07   1.46072e-07   8.47164e-08   4.68589e-08   2.47197e-08   1.24371e-08   5.96793e-09   2.73119e-09   1.19209e-09   4.96237e-10   1.97013e-10   7.45976e-11   2.69365e-11   9.47436e-12
   3.79811e-12   2.17608e-12   3.79811e-12   1.06656e-11   3.03233e-11   8.39769e-11   2.21784e-10   5.58629e-10   1.34197e-09   3.07459e-09   6.71829e-09   1.40009e-08   2.78278e-08   5.27506e-08   9.53679e-08   1.64438e-07   2.70415e-07   4.24114e-07   6.34398e-07   9.05038e-07   1.23140e-06   1.59792e-06   1.97760e-06   2.33425e-06   2.62774e-06   2.82126e-06   2.88888e-06   2.82126e-06   2.62774e-06   2.33425e-06   1.97760e-06   1.59792e-06   1.23140e-06   9.05038e-07   6.34398e-07   4.24114e-07   2.70415e-07   1.64438e-07   9.53679e-08   5.27506e-08   2.78278e-08   1.40009e-08   6.71829e-09   3.07459e-09   1.34197e-09   5.58629e-10   2.21784e-10   8.39769e-11   3.03233e-11   1.06656e-11
   4.07783e-12   2.33634e-12   4.07783e-12   1.14511e-11   3.25565e-11   9.01614e-11   2.38118e-10   5.99770e-10   1.44080e-09   3.30102e-09   7.21306e-09   1.50320e-08   2.98772e-08   5.66354e-08   1.02391e-07   1.76549e-07   2.90329e-07   4.55349e-07   6.81119e-07   9.71691e-07   1.32208e-06   1.71560e-06   2.12324e-06   2.50615e-06   2.82126e-06   3.02903e-06   3.10164e-06   3.02903e-06   2.82126e-06   2.50615e-06   2.12324e-06   1.71560e-06   1.32208e-06   9.71691e-07   6.81119e-07   4.55349e-07   2.90329e-07   1.76549e-07   1.02391e-07   5.66354e-08   2.98772e-08   1.50320e-08   7.21306e-09   3.30102e-09   1.44080e-09   5.99770e-10   2.38118e-10   9.01614e-11   3.25565e-11   1.14511e-11
   4.17557e-12   2.39234e-12   4.17557e-12   1.17255e-11   3.33369e-11   9.23225e-11   2.43825e-10   6.14146e-10   1.47534e-09   3.38015e-09   7.38595e-09   1.53923e-08   3.05933e-08   5.79930e-08   1.04846e-07   1.80780e-07   2.97289e-07   4.66263e-07   6.97445e-07   9.94981e-07   1.35377e-06   1.75672e-06   2.17413e-06   2.56623e-06   2.88888e-06   3.10164e-06   3.17598e-06   3.10164e-06   2.88888e-06   2.56623e-06   2.17413e-06   1.75672e-06   1.35377e-06   9.94981e-07   6.97445e-07   4.66263e-07   2.97289e-07   1.80780e-07   1.04846e-07   5.79930e-08   3.05933e-08   1.53923e-08   7.38595e-09   3.38015e-09   1.47534e-09   6.14146e-10   2.43825e-10   9.23225e-11   3.33369e-11   1.17255e-11
   4.07783e-12   2.33634e-12   4.07783e-12   1.14511e-11   3.25565e-11   9.01614e-11   2.38118e-10   5.99770e-10   1.44080e-09   3.30102e-09   7.21306e-09   1.50320e-08   2.98772e-08   5.66354e-08   1.02391e-07   1.76549e-07   2.90329e-07   4.55349e-07   6.81119e-07   9.71691e-07   1.32208e-06   1.71560e-06   2.12324e-06   2.50615e-06   2.82126e-06   3.02903e-06   3.10164e-06   3.02903e-06   2.82126e-06   2.50615e-06   2.12324e-06   1.71560e-06   1.32208e-06   9.71691e-07   6.81119e-07   4.55349e-07   2.90329e-07   1.76549e-07   1.02391e-07   5.66354e-08   2.98772e-08   1.50320e-08   7.21306e-09   3.30102e-09   1.44080e-09   5.99770e-10   2.38118e-10   9.01614e-11   3.25565e-11   1.14511e-11
   3.79811e-12   2.17608e-12   3.79811e-12   1.06656e-11   3.03233e-11   8.39769e-11   2.21784e-10   5.58629e-10   1.34197e-09   3.07459e-09   6.71829e-09   1.40009e-08   2.78278e-08   5.27506e-08   9.53679e-08   1.64438e-07   2.70415e-07   4.24114e-07   6.34398e-07   9.05038e-07   1.23140e-06   1.59792e-06   1.97760e-06   2.33425e-06   2.62774e-06   2.82126e-06   2.88888e-06   2.82126e-06   2.62774e-06   2.33425e-06   1.97760e-06   1.59792e-06   1.23140e-06   9.05038e-07   6.34398e-07   4.24114e-07   2.70415e-07   1.64438e-07   9.53679e-08   5.27506e-08   2.78278e-08   1.40009e-08   6.71829e-09   3.07459e-09   1.34197e-09   5.58629e-10   2.21784e-10   8.39769e-11   3.03233e-11   1.06656e-11
   3.37390e-12   1.93303e-12   3.37390e-12   9.47436e-12   2.69365e-11   7.45976e-11   1.97013e-10   4.96237e-10   1.19209e-09   2.73119e-09   5.96793e-09   1.24371e-08   2.47197e-08   4.68589e-08   8.47164e-08   1.46072e-07   2.40212e-07   3.76746e-07   5.63543e-07   8.03955e-07   1.09386e-06   1.41945e-06   1.75672e-06   2.07354e-06   2.33425e-06   2.50615e-06   2.56623e-06   2.50615e-06   2.33425e-06   2.07354e-06   1.75672e-06   1.41945e-06   1.09386e-06   8.03955e-07   5.63543e-07   3.76746e-07   2.40212e-07   1.46072e-07   8.47164e-08   4.68589e-08   2.47197e-08   1.24371e-08   5.96793e-09   2.73119e-09   1.19209e-09   4.96237e-10   1.97013e-10   7.45976e-11   2.69365e-11   9.47436e-12
   2.85841e-12   1.63769e-12   2.85841e-12   8.02677e-12   2.28209e-11   6.31998e-11   1.66912e-10   4.20417e-10   1.00995e-09   2.31390e-09   5.05609e-09   1.05369e-08   2.09428e-08   3.96993e-08   7.17725e-08   1.23754e-07   2.03510e-07   3.19183e-07   4.77439e-07   6.81119e-07   9.26732e-07   1.20257e-06   1.48831e-06   1.75672e-06   1.97760e-06   2.12324e-06   2.17413e-06   2.12324e-06   1.97760e-06   1.75672e-06   1.48831e-06   1.20257e-06   9.26732e-07   6.81119e-07   4.77439e-07   3.19183e-07   2.03510e-07   1.23754e-07   7.17725e-08   3.96993e-08   2.09428e-08   1.05369e-08   5.05609e-09   2.31390e-09   1.00995e-09   4.20417e-10   1.66912e-10   6.31998e-11   2.28209e-11   7.94804e-12
   2.30962e-12   1.32327e-12   2.30962e-12   6.48571e-12   1.84395e-11   5.10661e-11   1.34866e-10   3.39701e-10   8.16048e-10   1.86965e-09   4.08537e-09   8.51390e-09   1.69220e-08   3.20775e-08   5.79930e-08   9.99945e-08   1.64438e-07   2.57903e-07   3.85776e-07   5.50351e-07   7.48809e-07   9.71691e-07   1.20257e-06   1.41945e-06   1.59792e-06   1.71560e-06   1.75672e-06   1.71560e-06   1.59792e-06   1.41945e-06   1.20257e-06   9.71691e-07   7.48809e-07   5.50351e-07   3.85776e-07   2.57903e-07   1.64438e-07   9.99945e-08   5.79930e-08   3.20775e-08   1.69220e-08   8.51390e-09   4.08537e-09   1.86965e-09   8.16048e-10   3.39701e-10   1.34866e-10   5.10661e-11   1.84395e-11   6.42210e-12
   1.77985e-12   1.01974e-12   1.77985e-12   4.94903e-12   1.42100e-11   3.93528e-11   1.03931e-10   2.61782e-10   6.28867e-10   1.44080e-09   3.14829e-09   6.56102e-09   1.30405e-08   2.47197e-08   4.46908e-08   7.70583e-08   1.26720e-07   1.98746e-07   2.97289e-07   4.24114e-07   5.77051e-07   7.48809e-07   9.26732e-07   1.09386e-06   1.23140e-06   1.32208e-06   1.35377e-06   1.32208e-06   1.23140e-06   1.09386e-06   9.26732e-07   7.48809e-07   5.77051e-07   4.24114e-07   2.97289e-07   1.98746e-07   1.26720e-07   7.70583e-08   4.46908e-08   2.47197e-08   1.30405e-08   6.56102e-09   3.14829e-09   1.44080e-09   6.28867e-10   2.61782e-10   1.03931e-10   3.93528e-11   1.43840e-11   4.94903e-12
   1.30814e-12   7.49479e-13   1.30814e-12   3.63739e-12   1.04439e-11   2.89231e-11   7.63863e-11   1.92402e-10   4.62198e-10   1.05894e-09   2.31390e-09   4.82215e-09   9.58437e-09   1.81682e-08   3.28464e-08   5.66354e-08   9.31355e-08   1.46072e-07   2.18498e-07   3.11711e-07   4.24114e-07   5.50351e-07   6.81119e-07   8.03955e-07   9.05038e-07   9.71691e-07   9.94981e-07   9.71691e-07   9.05038e-07   8.03955e-07   6.81119e-07   5.50351e-07   4.24114e-07   3.11711e-07   2.18498e-07   1.46072e-07   9.31355e-08   5.66354e-08   3.28464e-08   1.81682e-08   9.58437e-09   4.82215e-09   2.31390e-09   1.05894e-09   4.62198e-10   1.92402e-10   7.63863e-11   2.89231e-11   1.05718e-11   3.63739e-12
   9.16955e-13   5.25357e-13   9.16955e-13   2.54967e-12   7.41046e-12   2.02740e-11   5.35440e-11   1.34866e-10   3.23984e-10   7.42280e-10   1.62195e-09   3.38015e-09   6.71829e-09   1.27353e-08   2.30241e-08   3.96993e-08   6.52845e-08   1.02391e-07   1.53159e-07   2.18498e-07   2.97289e-07   3.85776e-07   4.77439e-07   5.63543e-07   6.34398e-07   6.81119e-07   6.97445e-07   6.81119e-07   6.34398e-07   5.63543e-07   4.77439e-07   3.85776e-07   2.97289e-07   2.18498e-07   1.53159e-07   1.02391e-07   6.52845e-08   3.96993e-08   2.30241e-08   1.27353e-08   6.71829e-09   3.38015e-09   1.62195e-09   7.42280e-10   3.23984e-10   1.34866e-10   5.35440e-11   2.02740e-11   7.41046e-12   2.54967e-12
   6.13012e-13   3.51217e-13   6.13012e-13   1.70453e-12   4.95412e-12   1.35538e-11   3.57958e-11   9.01623e-11   2.16593e-10   4.96237e-10   1.08433e-09   2.25973e-09   4.49138e-09   8.51390e-09   1.53923e-08   2.65402e-08   4.36447e-08   6.84517e-08   1.02391e-07   1.46072e-07   1.98746e-07   2.57903e-07   3.19183e-07   3.76746e-07   4.24114e-07   4.55349e-07   4.66263e-07   4.55349e-07   4.24114e-07   3.76746e-07   3.19183e-07   2.57903e-07   1.98746e-07   1.46072e-07   1.02391e-07   6.84517e-08   4.36447e-08   2.65402e-08   1.53923e-08   8.51390e-09   4.49138e-09   2.25973e-09   1.08433e-09   4.96237e-10   2.16593e-10   9.01623e-11   3.57958e-11   1.35538e-11   4.95412e-12   1.70453e-12
   3.53079e-13   2.23935e-13   3.53079e-13   1.08681e-12   3.15874e-12   8.74774e-12   2.28233e-11   5.74873e-11   1.38099e-10   3.16400e-10   6.91364e-10   1.44080e-09   2.86369e-09   5.42845e-09   9.81410e-09   1.69220e-08   2.78278e-08   4.36447e-08   6.52845e-08   9.31355e-08   1.26720e-07   1.64438e-07   2.03510e-07   2.40212e-07   2.70415e-07   2.90329e-07   2.97289e-07   2.90329e-07   2.70415e-07   2.40212e-07   2.03510e-07   1.64438e-07   1.26720e-07   9.31355e-08   6.52845e-08   4.36447e-08   2.78278e-08   1.69220e-08   9.81410e-09   5.42845e-09   2.86369e-09   1.44080e-09   6.91364e-10   3.16400e-10   1.38099e-10   5.74873e-11   2.28233e-11   8.74774e-12   3.15874e-12   1.08681e-12
   2.14706e-13   1.36174e-13   2.14706e-13   6.60884e-13   1.92082e-12   5.31948e-12   1.38788e-11   3.49579e-11   8.39777e-11   1.92402e-10   4.20417e-10   8.76147e-10   1.74140e-09   3.30102e-09   5.96793e-09   1.02902e-08   1.69220e-08   2.65402e-08   3.96993e-08   5.66354e-08   7.70583e-08   9.99945e-08   1.23754e-07   1.46072e-07   1.64438e-07   1.76549e-07   1.80780e-07   1.76549e-07   1.64438e-07   1.46072e-07   1.23754e-07   9.99945e-08   7.70583e-08   5.66354e-08   3.96993e-08   2.65402e-08   1.69220e-08   1.02902e-08   5.96793e-09   3.30102e-09   1.74140e-09   8.76147e-10   4.20417e-10   1.92402e-10   8.39777e-11   3.49579e-11   1.38788e-11   5.31948e-12   1.92082e-12   6.60884e-13
   1.24521e-13  -1.02035e-14   1.24521e-13   3.83287e-13   1.11400e-12   3.08509e-12   8.14777e-12   2.02742e-11   4.87038e-11   1.11586e-10   2.43825e-10   5.08131e-10   1.00995e-09   1.91447e-09   3.46117e-09   5.96793e-09   9.81410e-09   1.53923e-08   2.30241e-08   3.28464e-08   4.46908e-08   5.79930e-08   7.17725e-08   8.47164e-08   9.53679e-08   1.02391e-07   1.04846e-07   1.02391e-07   9.53679e-08   8.47164e-08   7.17725e-08   5.79930e-08   4.46908e-08   3.28464e-08   2.30241e-08   1.53923e-08   9.81410e-09   5.96793e-09   3.46117e-09   1.91447e-09   1.00995e-09   5.08131e-10   2.43825e-10   1.11586e-10   4.87038e-11   2.02742e-11   8.04917e-12   3.08509e-12   1.11400e-12   3.83287e-13
   6.88761e-14  -5.64381e-15   6.88761e-14   2.12007e-13   6.16184e-13   1.70645e-12   4.50675e-12   1.12142e-11   2.69394e-11   6.17210e-11   1.34866e-10   2.81061e-10   5.58629e-10   1.05894e-09   1.91447e-09   3.30102e-09   5.42845e-09   8.51390e-09   1.27353e-08   1.81682e-08   2.47197e-08   3.20775e-08   3.96993e-08   4.68589e-08   5.27506e-08   5.66354e-08   5.79930e-08   5.66354e-08   5.27506e-08   4.68589e-08   3.96993e-08   3.20775e-08   2.47197e-08   1.81682e-08   1.27353e-08   8.51390e-09   5.42845e-09   3.30102e-09   1.91447e-09   1.05894e-09   5.58629e-10   2.81061e-10   1.34866e-10   6.17210e-11   2.69394e-11   1.13516e-11   4.50675e-12   1.70645e-12   6.16184e-13   2.12007e-13
  -5.19657e-15  -2.97731e-15  -5.19657e-15   1.11841e-13   3.25058e-13   9.00210e-13   2.37747e-12   5.98836e-12   1.42115e-11   3.25600e-11   7.11468e-11   1.48270e-10   2.94696e-10   5.58629e-10   1.00995e-09   1.74140e-09   2.86369e-09   4.49138e-09   6.71829e-09   9.58437e-09   1.30405e-08   1.69220e-08   2.09428e-08   2.47197e-08   2.78278e-08   2.98772e-08   3.05933e-08   2.98772e-08   2.78278e-08   2.47197e-08   2.09428e-08   1.69220e-08   1.30405e-08   9.58437e-09   6.71829e-09   4.49138e-09   2.86369e-09   1.74140e-09   1.00995e-09   5.58629e-10   2.94696e-10   1.48270e-10   7.11468e-11   3.25600e-11   1.42115e-11   5.98836e-12   2.37747e-12   9.00210e-13   3.25058e-13   1.11841e-13