Generated by the pyWannier90. Date: Wed Aug 23 10:41:15 2023

CRYSTAL
PRIMVEC
10.0000000   0.0000000   0.0000000
 0.0000000  10.0000000   0.0000000
 0.0000000   0.0000000  10.0000000
CONVVEC
10.0000000   0.0000000   0.0000000
 0.0000000  10.0000000   0.0000000
 0.0000000   0.0000000  10.0000000
PRIMCOORD
  2   1
H  5.0000000  5.0000000  4.0000000
H  5.0000000  5.0000000  5.0000000


BEGIN_BLOCK_DATAGRID_3D
3D_field
BEGIN_DATAGRID_3D_UNKNOWN
      50        50     50
   -0.2000000  -0.2000000  -0.2000000
    9.8000000   0.0000000   0.0000000
    0.0000000   9.8000000   0.0000000
    0.0000000   0.0000000   9.8000000
  -1.25219e-19  -3.92290e-20  -1.25219e-19  -3.81206e-19  -1.10681e-18  -3.35195e-18  -8.85203e-18  -2.22964e-17  -5.35617e-17  -1.22715e-16  -2.68145e-16  -5.58814e-16  -1.11068e-15   1.29400e-14   2.33943e-14   4.03376e-14   6.63341e-14   1.04038e-13   1.72558e-13   2.46173e-13   3.34944e-13   4.34639e-13   5.37913e-13   6.34923e-13   7.14753e-13   7.67391e-13   7.75910e-13   7.67386e-13   7.14753e-13   6.34923e-13   5.37913e-13   4.34639e-13   3.34944e-13   2.46173e-13   1.72558e-13   1.04038e-13   6.63341e-14   4.03376e-14   2.33943e-14   1.29400e-14   6.82630e-15  -5.58814e-16  -2.68145e-16  -1.22715e-16  -5.35617e-17  -2.22964e-17  -8.85203e-18  -3.35178e-18  -1.21042e-18  -3.81206e-19
  -3.92290e-20   0.00000e+00  -3.92290e-20  -2.38851e-19  -6.93492e-19  -1.92036e-18  -5.07165e-18  -1.27744e-17  -3.06875e-17  -7.03082e-17  -1.53630e-16  -3.20165e-16  -6.36351e-16  -1.20627e-15   6.34068e-15   1.09329e-14   4.21416e-14   6.60942e-14   9.88650e-14   1.41042e-13   1.91902e-13   2.49021e-13   3.08190e-13   3.63770e-13   4.09508e-13   4.39667e-13   4.50205e-13   4.39667e-13   4.09508e-13   3.63770e-13   3.08190e-13   2.49021e-13   1.91902e-13   1.41042e-13   9.88650e-14   6.60942e-14   4.21416e-14   1.09329e-14   6.34068e-15   3.50721e-15   1.85017e-15  -3.20165e-16  -1.53630e-16  -7.03082e-17  -3.06875e-17  -1.27744e-17  -5.07165e-18  -1.92036e-18  -6.93492e-19  -2.38851e-19
  -1.25219e-19   0.00000e+00  -1.25219e-19  -3.81206e-19  -1.10681e-18  -3.35178e-18  -8.85203e-18  -2.22964e-17  -5.35617e-17  -1.22715e-16  -2.68145e-16  -5.58814e-16   6.82630e-15   1.29400e-14   2.33943e-14   4.03376e-14   7.35536e-14   1.15361e-13   1.72558e-13   2.46173e-13   3.34944e-13   4.34639e-13   5.37913e-13   6.34923e-13   7.14753e-13   7.67391e-13   7.85785e-13   7.67391e-13   7.14753e-13   6.26944e-13   5.37913e-13   4.34639e-13   3.34944e-13   2.46173e-13   1.72558e-13   1.04038e-13   6.63341e-14   4.03376e-14   2.33943e-14   1.29400e-14   6.82630e-15  -5.58814e-16  -2.68145e-16  -1.22715e-16  -5.35617e-17  -2.22964e-17  -8.85203e-18  -3.35178e-18  -1.21042e-18  -4.16889e-19
  -4.16889e-19  -2.38851e-19  -4.16889e-19  -1.16051e-18  -3.36948e-18  -9.41223e-18  -2.48576e-17  -6.26113e-17  -1.50408e-16  -3.44601e-16  -7.52987e-16  -1.56922e-15   2.10437e-14   3.98906e-14   7.21184e-14   1.24350e-13   2.04491e-13   3.20720e-13   4.79740e-13   6.84401e-13   9.31197e-13   1.19174e-12   1.47490e-12   1.75865e-12   1.97977e-12   2.12557e-12   2.17652e-12   2.12557e-12   1.97977e-12   1.75865e-12   1.51053e-12   1.22052e-12   9.40565e-13   6.91286e-13   4.84566e-13   3.20720e-13   2.04491e-13   1.24350e-13   7.21184e-14   3.98906e-14   2.10437e-14  -1.56922e-15   5.08045e-15  -3.44601e-16  -1.50408e-16  -6.26113e-17  -2.48576e-17  -9.41228e-18  -3.36948e-18  -1.17068e-18
  -1.21042e-18  -6.93492e-19  -1.21042e-18  -3.36948e-18  -9.79116e-18  -2.70906e-17  -7.15461e-17  -1.80210e-16  -4.33265e-16   6.75854e-15   1.47681e-14   3.07766e-14   6.11707e-14   1.15956e-13   2.09637e-13   3.61467e-13   5.94422e-13   9.32284e-13   1.39453e-12   1.98944e-12   2.70684e-12   3.46425e-12   4.28738e-12   5.06541e-12   5.70230e-12   6.12225e-12   6.26899e-12   6.12225e-12   5.70230e-12   5.06541e-12   4.28738e-12   3.46425e-12   2.66964e-12   1.96210e-12   1.37536e-12   9.32284e-13   5.94422e-13   3.61467e-13   2.09637e-13   1.15956e-13   6.11707e-14   3.07766e-14   1.47681e-14  -9.92656e-16  -4.33265e-16  -1.80358e-16  -7.16048e-17  -2.71129e-17  -9.78314e-18  -3.39901e-18
  -3.35178e-18  -1.92036e-18  -3.35178e-18  -9.41223e-18  -2.71128e-17  -7.50170e-17  -1.98119e-16  -4.99022e-16  -1.19887e-15   1.87172e-14   4.08989e-14   8.52332e-14   1.69407e-13   3.21130e-13   5.80571e-13   1.00105e-12   1.64620e-12   2.54640e-12   3.80895e-12   5.43388e-12   7.39334e-12   9.59396e-12   1.18736e-11   1.40149e-11   1.57770e-11   1.69389e-11   1.73449e-11   1.69389e-11   1.57770e-11   1.40149e-11   1.18736e-11   9.59396e-12   7.39334e-12   5.43388e-12   3.80895e-12   2.58188e-12   1.64620e-12   1.00105e-12   5.80571e-13   3.21130e-13   1.69407e-13   8.52332e-14   4.08989e-14   1.87174e-14   8.16960e-15  -4.99022e-16  -1.98119e-16  -7.50170e-17  -2.71128e-17  -9.41223e-18
  -8.85203e-18  -5.07165e-18  -8.85203e-18  -2.48576e-17  -7.16048e-17  -1.98134e-16  -5.23231e-16   8.98150e-15   2.15758e-14   4.94325e-14   1.08015e-13   2.25102e-13   4.47407e-13   8.48109e-13   1.51223e-12   2.60746e-12   4.28790e-12   6.72508e-12   1.00595e-11   1.43510e-11   1.95260e-11   2.53378e-11   3.13583e-11   3.70136e-11   4.16674e-11   4.47360e-11   4.58083e-11   4.47360e-11   4.16674e-11   3.70136e-11   3.13583e-11   2.53378e-11   1.95260e-11   1.43510e-11   1.00595e-11   6.72508e-12   4.28790e-12   2.60746e-12   1.51223e-12   8.48109e-13   4.47407e-13   2.25102e-13   1.08015e-13   4.94325e-14   2.15758e-14  -1.31791e-15  -5.23231e-16  -1.98119e-16  -7.16048e-17  -2.48576e-17
  -2.22964e-17  -1.27744e-17  -2.22964e-17  -6.26113e-17  -1.80358e-16  -4.99060e-16  -1.31791e-15   2.26226e-14   5.43451e-14   1.24510e-13   2.72067e-13   5.66987e-13   1.12693e-12   2.13622e-12   3.80899e-12   6.56766e-12   1.08003e-11   1.69391e-11   2.53378e-11   3.61472e-11   4.91819e-11   6.38209e-11   7.89852e-11   9.32298e-11   1.04952e-10   1.12681e-10   1.15382e-10   1.12681e-10   1.04952e-10   9.32298e-11   7.89852e-11   6.38209e-11   4.91819e-11   3.61472e-11   2.53378e-11   1.69391e-11   1.08003e-11   6.56766e-12   3.80899e-12   2.13622e-12   1.12693e-12   5.66987e-13   2.72067e-13   1.24510e-13   5.43451e-14   2.26226e-14   8.98150e-15  -4.99060e-16  -1.80358e-16  -6.26113e-17
  -5.35617e-17  -3.06875e-17  -5.35617e-17  -1.50408e-16  -4.33265e-16  -1.19887e-15   2.15758e-14   5.43451e-14   1.30551e-13   2.99106e-13   6.53575e-13   1.36205e-12   2.66996e-12   5.06121e-12   9.15016e-12   1.57772e-11   2.59452e-11   4.06921e-11   6.08679e-11   8.68348e-11   1.18148e-10   1.53314e-10   1.89742e-10   2.23962e-10   2.52121e-10   2.70688e-10   2.77177e-10   2.70688e-10   2.52121e-10   2.23962e-10   1.89742e-10   1.53314e-10   1.18148e-10   8.68348e-11   6.08679e-11   4.06921e-11   2.59452e-11   1.57772e-11   9.15016e-12   5.06121e-12   2.66996e-12   1.36205e-12   6.53575e-13   2.99106e-13   1.30551e-13   5.43451e-14   2.15758e-14  -1.19887e-15  -4.33265e-16  -1.50408e-16
  -1.22715e-16  -7.03082e-17  -1.22715e-16  -3.44601e-16   6.75854e-15   1.87172e-14   4.94325e-14   1.24510e-13   2.99106e-13   6.85282e-13   1.49741e-12   3.12059e-12   6.11716e-12   1.15957e-11   2.09640e-11   3.61472e-11   5.94431e-11   9.32298e-11   1.39455e-10   1.98948e-10   2.70688e-10   3.51258e-10   4.34720e-10   5.13119e-10   5.77635e-10   6.20175e-10   6.35040e-10   6.20175e-10   5.77635e-10   5.13119e-10   4.34720e-10   3.51258e-10   2.70688e-10   1.98948e-10   1.39455e-10   9.32298e-11   5.94431e-11   3.61472e-11   2.09640e-11   1.15957e-11   6.11716e-12   3.12059e-12   1.49741e-12   6.85282e-13   2.99106e-13   1.24510e-13   4.94325e-14   1.87172e-14   6.75854e-15  -3.44601e-16
  -2.68145e-16  -1.53630e-16  -2.68145e-16  -7.52987e-16   1.47681e-14   4.08989e-14   1.08015e-13   2.72067e-13   6.53575e-13   1.49741e-12   3.22702e-12   6.72509e-12   1.33666e-11   2.53378e-11   4.58084e-11   7.89852e-11   1.29889e-10   2.03716e-10   3.04722e-10   4.34720e-10   5.91480e-10   7.67533e-10   9.49905e-10   1.12122e-09   1.26219e-09   1.35514e-09   1.38763e-09   1.35514e-09   1.26219e-09   1.12122e-09   9.49905e-10   7.67533e-10   5.91480e-10   4.34720e-10   3.04722e-10   2.03716e-10   1.29889e-10   7.89852e-11   4.58084e-11   2.53378e-11   1.33666e-11   6.72509e-12   3.22702e-12   1.49741e-12   6.53575e-13   2.72067e-13   1.08015e-13   4.08989e-14   1.47681e-14  -7.52987e-16
  -5.58814e-16  -3.20165e-16  -5.58814e-16   1.05876e-14   3.07766e-14   8.52332e-14   2.25102e-13   5.66987e-13   1.36205e-12   3.12059e-12   6.72509e-12   1.40151e-11   2.78559e-11   5.28040e-11   9.54644e-11   1.64605e-10   2.70688e-10   4.24544e-10   6.35040e-10   9.05954e-10   1.23264e-09   1.59954e-09   1.97960e-09   2.33661e-09   2.63040e-09   2.82411e-09   2.89181e-09   2.82411e-09   2.63040e-09   2.33661e-09   1.97960e-09   1.59954e-09   1.23264e-09   9.05954e-10   6.35040e-10   4.24544e-10   2.70688e-10   1.64605e-10   9.54644e-11   5.28040e-11   2.78559e-11   1.40151e-11   6.72509e-12   3.12059e-12   1.36205e-12   5.66987e-13   2.25102e-13   8.52332e-14   3.07766e-14   1.05876e-14
  -1.11068e-15  -6.36351e-16  -1.11068e-15   2.10437e-14   6.11707e-14   1.69407e-13   4.47407e-13   1.12693e-12   2.66996e-12   6.11716e-12   1.33666e-11   2.78559e-11   5.53657e-11   1.04952e-10   1.89742e-10   3.27164e-10   5.38013e-10   8.43811e-10   1.26219e-09   1.80065e-09   2.44997e-09   3.17919e-09   3.93460e-09   4.64418e-09   5.22810e-09   5.61313e-09   5.74767e-09   5.61313e-09   5.22810e-09   4.64418e-09   3.93460e-09   3.17919e-09   2.44997e-09   1.80065e-09   1.26219e-09   8.43811e-10   5.38013e-10   3.27164e-10   1.89742e-10   1.04952e-10   5.53657e-11   2.78559e-11   1.33666e-11   6.11716e-12   2.66996e-12   1.12693e-12   4.47407e-13   1.69407e-13   6.11707e-14   2.10437e-14
   1.29400e-14  -1.20627e-15   1.29400e-14   3.98906e-14   1.15956e-13   3.21130e-13   8.48109e-13   2.10686e-12   5.06121e-12   1.15957e-11   2.53378e-11   5.28040e-11   1.04952e-10   1.98948e-10   3.59678e-10   6.20175e-10   1.01986e-09   1.59954e-09   2.39262e-09   3.41333e-09   4.64418e-09   6.02651e-09   7.45846e-09   8.80355e-09   9.91044e-09   1.06403e-08   1.08953e-08   1.06403e-08   9.91044e-09   8.80355e-09   7.45846e-09   6.02651e-09   4.64418e-09   3.41333e-09   2.39262e-09   1.59954e-09   1.01986e-09   6.20175e-10   3.59678e-10   1.98948e-10   1.04952e-10   5.28040e-11   2.53378e-11   1.15957e-11   5.06121e-12   2.13622e-12   8.48109e-13   3.21130e-13   1.15956e-13   3.98906e-14
   2.33943e-14  -2.18082e-15   2.33943e-14   7.21184e-14   2.09637e-13   5.80571e-13   1.53330e-12   3.80899e-12   9.15016e-12   2.09640e-11   4.58084e-11   9.54644e-11   1.89742e-10   3.59678e-10   6.50262e-10   1.12122e-09   1.84381e-09   2.89181e-09   4.32562e-09   6.17097e-09   8.39622e-09   1.08953e-08   1.34842e-08   1.59160e-08   1.79171e-08   1.92366e-08   1.96977e-08   1.92366e-08   1.79171e-08   1.59160e-08   1.34842e-08   1.08953e-08   8.39622e-09   6.17097e-09   4.32562e-09   2.89181e-09   1.84381e-09   1.12122e-09   6.50262e-10   3.59678e-10   1.89742e-10   9.54644e-11   4.58084e-11   2.09640e-11   9.15016e-12   3.80899e-12   1.53330e-12   5.80571e-13   2.09637e-13   7.21184e-14
   4.03376e-14   2.56262e-14   4.03376e-14   1.24350e-13   3.61467e-13   1.00105e-12   2.60746e-12   6.56766e-12   1.57772e-11   3.61472e-11   7.89852e-11   1.64605e-10   3.27164e-10   6.20175e-10   1.12122e-09   1.93326e-09   3.17919e-09   4.98620e-09   7.45846e-09   1.06403e-08   1.44772e-08   1.87863e-08   2.32501e-08   2.74431e-08   3.08936e-08   3.31688e-08   3.39638e-08   3.31688e-08   3.08936e-08   2.74431e-08   2.32501e-08   1.87863e-08   1.44772e-08   1.06403e-08   7.45846e-09   4.98620e-09   3.17919e-09   1.93326e-09   1.12122e-09   6.20175e-10   3.27164e-10   1.64605e-10   7.89852e-11   3.61472e-11   1.57772e-11   6.56766e-12   2.64379e-12   1.00105e-12   3.61467e-13   1.24350e-13
   6.63341e-14   4.21416e-14   6.63341e-14   2.04491e-13   5.94422e-13   1.64620e-12   4.28790e-12   1.08003e-11   2.59452e-11   5.94431e-11   1.29889e-10   2.70688e-10   5.38013e-10   1.01986e-09   1.84381e-09   3.17919e-09   5.22810e-09   8.19968e-09   1.22652e-08   1.74977e-08   2.38074e-08   3.08936e-08   3.82342e-08   4.51295e-08   5.08038e-08   5.45452e-08   5.58527e-08   5.45452e-08   5.08038e-08   4.51295e-08   3.82342e-08   3.08936e-08   2.38074e-08   1.74977e-08   1.22652e-08   8.19968e-09   5.22810e-09   3.17919e-09   1.84381e-09   1.01986e-09   5.38013e-10   2.70688e-10   1.29889e-10   5.94431e-11   2.59452e-11   1.08003e-11   4.28790e-12   1.64620e-12   5.94422e-13   2.04491e-13
   1.15361e-13   6.60942e-14   1.15361e-13   3.20720e-13   9.32284e-13   2.54640e-12   6.72508e-12   1.69391e-11   4.06921e-11   9.32298e-11   2.03716e-10   4.24544e-10   8.43811e-10   1.59954e-09   2.89181e-09   4.98620e-09   8.19968e-09   1.28603e-08   1.92366e-08   2.74431e-08   3.73392e-08   4.84531e-08   5.99660e-08   7.07805e-08   7.96799e-08   8.55480e-08   8.75985e-08   8.55480e-08   7.96799e-08   7.07805e-08   5.99660e-08   4.84531e-08   3.73392e-08   2.74431e-08   1.92366e-08   1.28603e-08   8.19968e-09   4.98620e-09   2.89181e-09   1.59954e-09   8.43811e-10   4.24544e-10   2.03716e-10   9.32298e-11   4.06921e-11   1.69391e-11   6.72508e-12   2.58188e-12   9.32284e-13   3.20720e-13
   1.72558e-13   9.88650e-14   1.72558e-13   4.79740e-13   1.39453e-12   3.80895e-12   1.00595e-11   2.53378e-11   6.08679e-11   1.39455e-10   3.04722e-10   6.35040e-10   1.26219e-09   2.39262e-09   4.32562e-09   7.45846e-09   1.22652e-08   1.92366e-08   2.87745e-08   4.10500e-08   5.58527e-08   7.24771e-08   8.96982e-08   1.05875e-07   1.19187e-07   1.27964e-07   1.31032e-07   1.27964e-07   1.19187e-07   1.05875e-07   8.96982e-08   7.24771e-08   5.58527e-08   4.10500e-08   2.87745e-08   1.92366e-08   1.22652e-08   7.45846e-09   4.32562e-09   2.39262e-09   1.26219e-09   6.35040e-10   3.04722e-10   1.39455e-10   6.08679e-11   2.53378e-11   1.00595e-11   3.80895e-12   1.39453e-12   4.79740e-13
   2.46173e-13   1.41042e-13   2.46173e-13   6.84401e-13   1.98944e-12   5.43388e-12   1.43510e-11   3.61472e-11   8.68348e-11   1.98948e-10   4.34720e-10   9.05954e-10   1.80065e-09   3.41333e-09   6.17097e-09   1.06403e-08   1.74977e-08   2.74431e-08   4.10500e-08   5.85623e-08   7.96799e-08   1.03396e-07   1.27964e-07   1.51042e-07   1.70033e-07   1.82555e-07   1.86931e-07   1.82555e-07   1.70033e-07   1.51042e-07   1.27964e-07   1.03396e-07   7.96799e-08   5.85623e-08   4.10500e-08   2.74431e-08   1.74977e-08   1.06403e-08   6.17097e-09   3.41333e-09   1.80065e-09   9.05954e-10   4.34720e-10   1.98948e-10   8.68348e-11   3.61472e-11   1.43510e-11   5.43388e-12   1.98944e-12   6.84401e-13
   3.34944e-13   1.91902e-13   3.34944e-13   9.31197e-13   2.70684e-12   7.39334e-12   1.95260e-11   4.91819e-11   1.18148e-10   2.70688e-10   5.91480e-10   1.23264e-09   2.44997e-09   4.64418e-09   8.39622e-09   1.44772e-08   2.38074e-08   3.73392e-08   5.58527e-08   7.96799e-08   1.08413e-07   1.40681e-07   1.74108e-07   2.05508e-07   2.31347e-07   2.48385e-07   2.54338e-07   2.48385e-07   2.31347e-07   2.05508e-07   1.74108e-07   1.40681e-07   1.08413e-07   7.96799e-08   5.58527e-08   3.73392e-08   2.38074e-08   1.44772e-08   8.39622e-09   4.64418e-09   2.44997e-09   1.23264e-09   5.91480e-10   2.70688e-10   1.18148e-10   4.91819e-11   1.95260e-11   7.39334e-12   2.66964e-12   9.31197e-13
   4.34639e-13   2.49021e-13   4.34639e-13   1.20837e-12   3.46425e-12   9.59396e-12   2.53378e-11   6.38209e-11   1.53314e-10   3.51258e-10   7.67533e-10   1.59954e-09   3.17919e-09   6.02651e-09   1.08953e-08   1.87863e-08   3.08936e-08   4.84531e-08   7.24771e-08   1.03396e-07   1.40681e-07   1.82555e-07   2.25931e-07   2.66677e-07   3.00207e-07   3.22316e-07   3.30042e-07   3.22316e-07   3.00207e-07   2.66677e-07   2.25931e-07   1.82555e-07   1.40681e-07   1.03396e-07   7.24771e-08   4.84531e-08   3.08936e-08   1.87863e-08   1.08953e-08   6.02651e-09   3.17919e-09   1.59954e-09   7.67533e-10   3.51258e-10   1.53314e-10   6.38209e-11   2.53378e-11   9.59396e-12   3.46425e-12   1.20837e-12
   5.37913e-13   3.08190e-13   5.37913e-13   1.49548e-12   4.28738e-12   1.18736e-11   3.13583e-11   7.89852e-11   1.89742e-10   4.34720e-10   9.49905e-10   1.97960e-09   3.93460e-09   7.45846e-09   1.34842e-08   2.32501e-08   3.82342e-08   5.99660e-08   8.96982e-08   1.27964e-07   1.74108e-07   2.25931e-07   2.79614e-07   3.30042e-07   3.71538e-07   3.98901e-07   4.08462e-07   3.98901e-07   3.71538e-07   3.30042e-07   2.79614e-07   2.25931e-07   1.74108e-07   1.27964e-07   8.96982e-08   5.99660e-08   3.82342e-08   2.32501e-08   1.34842e-08   7.45846e-09   3.93460e-09   1.97960e-09   9.49905e-10   4.34720e-10   1.89742e-10   7.89852e-11   3.13583e-11   1.18736e-11   4.28738e-12   1.51053e-12
   6.34923e-13   3.63770e-13   6.34923e-13   1.78294e-12   5.06059e-12   1.40149e-11   3.70136e-11   9.32298e-11   2.23962e-10   5.13119e-10   1.12122e-09   2.33661e-09   4.64418e-09   8.80355e-09   1.59160e-08   2.74431e-08   4.51295e-08   7.07805e-08   1.05875e-07   1.51042e-07   2.05508e-07   2.66677e-07   3.30042e-07   3.89563e-07   4.38543e-07   4.70840e-07   4.82126e-07   4.70840e-07   4.38543e-07   3.89563e-07   3.30042e-07   2.66677e-07   2.05508e-07   1.51042e-07   1.05875e-07   7.07805e-08   4.51295e-08   2.74431e-08   1.59160e-08   8.80355e-09   4.64418e-09   2.33661e-09   1.12122e-09   5.13119e-10   2.23962e-10   9.32298e-11   3.70136e-11   1.40149e-11   5.06059e-12   1.78294e-12
   7.14753e-13   4.09508e-13   7.14753e-13   2.00712e-12   5.69686e-12   1.57770e-11   4.16674e-11   1.04952e-10   2.52121e-10   5.77635e-10   1.26219e-09   2.63040e-09   5.22810e-09   9.91044e-09   1.79171e-08   3.08936e-08   5.08038e-08   7.96799e-08   1.19187e-07   1.70033e-07   2.31347e-07   3.00207e-07   3.71538e-07   4.38543e-07   4.93682e-07   5.30040e-07   5.42745e-07   5.30040e-07   4.93682e-07   4.38543e-07   3.71538e-07   3.00207e-07   2.31347e-07   1.70033e-07   1.19187e-07   7.96799e-08   5.08038e-08   3.08936e-08   1.79171e-08   9.91044e-09   5.22810e-09   2.63040e-09   1.26219e-09   5.77635e-10   2.52121e-10   1.04952e-10   4.16674e-11   1.57770e-11   5.69686e-12   2.00712e-12
   7.67391e-13   4.39667e-13   7.67391e-13   2.15493e-12   6.11641e-12   1.69389e-11   4.47360e-11   1.12681e-10   2.70688e-10   6.20175e-10   1.35514e-09   2.82411e-09   5.61313e-09   1.06403e-08   1.92366e-08   3.31688e-08   5.45452e-08   8.55480e-08   1.27964e-07   1.82555e-07   2.48385e-07   3.22316e-07   3.98901e-07   4.70840e-07   5.30040e-07   5.69075e-07   5.82715e-07   5.69075e-07   5.30040e-07   4.70840e-07   3.98901e-07   3.22316e-07   2.48385e-07   1.82555e-07   1.27964e-07   8.55480e-08   5.45452e-08   3.31688e-08   1.92366e-08   1.06403e-08   5.61313e-09   2.82411e-09   1.35514e-09   6.20175e-10   2.70688e-10   1.12681e-10   4.47360e-11   1.69389e-11   6.11641e-12   2.15493e-12
   7.85785e-13   4.50205e-13   7.85785e-13   2.20659e-12   6.26302e-12   1.73449e-11   4.58083e-11   1.15382e-10   2.77177e-10   6.35040e-10   1.38763e-09   2.89181e-09   5.74767e-09   1.08953e-08   1.96977e-08   3.39638e-08   5.58527e-08   8.75985e-08   1.31032e-07   1.86931e-07   2.54338e-07   3.30042e-07   4.08462e-07   4.82126e-07   5.42745e-07   5.82715e-07   5.96683e-07   5.82715e-07   5.42745e-07   4.82126e-07   4.08462e-07   3.30042e-07   2.54338e-07   1.86931e-07   1.31032e-07   8.75985e-08   5.58527e-08   3.39638e-08   1.96977e-08   1.08953e-08   5.74767e-09   2.89181e-09   1.38763e-09   6.35040e-10   2.77177e-10   1.15382e-10   4.58083e-11   1.73449e-11   6.26302e-12   2.20659e-12
   7.67391e-13   4.39667e-13   7.67391e-13   2.15493e-12   6.11641e-12   1.69389e-11   4.47360e-11   1.12681e-10   2.70688e-10   6.20175e-10   1.35514e-09   2.82411e-09   5.61313e-09   1.06403e-08   1.92366e-08   3.31688e-08   5.45452e-08   8.55480e-08   1.27964e-07   1.82555e-07   2.48385e-07   3.22316e-07   3.98901e-07   4.70840e-07   5.30040e-07   5.69075e-07   5.82715e-07   5.69075e-07   5.30040e-07   4.70840e-07   3.98901e-07   3.22316e-07   2.48385e-07   1.82555e-07   1.27964e-07   8.55480e-08   5.45452e-08   3.31688e-08   1.92366e-08   1.06403e-08   5.61313e-09   2.82411e-09   1.35514e-09   6.20175e-10   2.70688e-10   1.12681e-10   4.47360e-11   1.69389e-11   6.11641e-12   2.15493e-12
   7.14753e-13   4.09508e-13   7.14753e-13   2.00712e-12   5.69686e-12   1.57770e-11   4.16674e-11   1.04952e-10   2.52121e-10   5.77635e-10   1.26219e-09   2.63040e-09   5.22810e-09   9.91044e-09   1.79171e-08   3.08936e-08   5.08038e-08   7.96799e-08   1.19187e-07   1.70033e-07   2.31347e-07   3.00207e-07   3.71538e-07   4.38543e-07   4.93682e-07   5.30040e-07   5.42745e-07   5.30040e-07   4.93682e-07   4.38543e-07   3.71538e-07   3.00207e-07   2.31347e-07   1.70033e-07   1.19187e-07   7.96799e-08   5.08038e-08   3.08936e-08   1.79171e-08   9.91044e-09   5.22810e-09   2.63040e-09   1.26219e-09   5.77635e-10   2.52121e-10   1.04952e-10   4.16674e-11   1.57770e-11   5.69686e-12   2.00712e-12
   6.34923e-13   3.63770e-13   6.34923e-13   1.78294e-12   5.06059e-12   1.40149e-11   3.70136e-11   9.32298e-11   2.23962e-10   5.13119e-10   1.12122e-09   2.33661e-09   4.64418e-09   8.80355e-09   1.59160e-08   2.74431e-08   4.51295e-08   7.07805e-08   1.05875e-07   1.51042e-07   2.05508e-07   2.66677e-07   3.30042e-07   3.89563e-07   4.38543e-07   4.70840e-07   4.82126e-07   4.70840e-07   4.38543e-07   3.89563e-07   3.30042e-07   2.66677e-07   2.05508e-07   1.51042e-07   1.05875e-07   7.07805e-08   4.51295e-08   2.74431e-08   1.59160e-08   8.80355e-09   4.64418e-09   2.33661e-09   1.12122e-09   5.13119e-10   2.23962e-10   9.32298e-11   3.70136e-11   1.40149e-11   5.06059e-12   1.78294e-12
   5.37913e-13   3.08190e-13   5.37913e-13   1.51053e-12   4.28738e-12   1.18736e-11   3.13583e-11   7.89852e-11   1.89742e-10   4.34720e-10   9.49905e-10   1.97960e-09   3.93460e-09   7.45846e-09   1.34842e-08   2.32501e-08   3.82342e-08   5.99660e-08   8.96982e-08   1.27964e-07   1.74108e-07   2.25931e-07   2.79614e-07   3.30042e-07   3.71538e-07   3.98901e-07   4.08462e-07   3.98901e-07   3.71538e-07   3.30042e-07   2.79614e-07   2.25931e-07   1.74108e-07   1.27964e-07   8.96982e-08   5.99660e-08   3.82342e-08   2.32501e-08   1.34842e-08   7.45846e-09   3.93460e-09   1.97960e-09   9.49905e-10   4.34720e-10   1.89742e-10   7.89852e-11   3.13583e-11   1.18736e-11   4.28738e-12   1.49548e-12
   4.34639e-13   2.49021e-13   4.34639e-13   1.22052e-12   3.46425e-12   9.59396e-12   2.53378e-11   6.38209e-11   1.53314e-10   3.51258e-10   7.67533e-10   1.59954e-09   3.17919e-09   6.02651e-09   1.08953e-08   1.87863e-08   3.08936e-08   4.84531e-08   7.24771e-08   1.03396e-07   1.40681e-07   1.82555e-07   2.25931e-07   2.66677e-07   3.00207e-07   3.22316e-07   3.30042e-07   3.22316e-07   3.00207e-07   2.66677e-07   2.25931e-07   1.82555e-07   1.40681e-07   1.03396e-07   7.24771e-08   4.84531e-08   3.08936e-08   1.87863e-08   1.08953e-08   6.02651e-09   3.17919e-09   1.59954e-09   7.67533e-10   3.51258e-10   1.53314e-10   6.38209e-11   2.53378e-11   9.59396e-12   3.46425e-12   1.20837e-12
   3.34944e-13   1.91902e-13   3.34944e-13   9.31197e-13   2.66964e-12   7.39334e-12   1.95260e-11   4.91819e-11   1.18148e-10   2.70688e-10   5.91480e-10   1.23264e-09   2.44997e-09   4.64418e-09   8.39622e-09   1.44772e-08   2.38074e-08   3.73392e-08   5.58527e-08   7.96799e-08   1.08413e-07   1.40681e-07   1.74108e-07   2.05508e-07   2.31347e-07   2.48385e-07   2.54338e-07   2.48385e-07   2.31347e-07   2.05508e-07   1.74108e-07   1.40681e-07   1.08413e-07   7.96799e-08   5.58527e-08   3.73392e-08   2.38074e-08   1.44772e-08   8.39622e-09   4.64418e-09   2.44997e-09   1.23264e-09   5.91480e-10   2.70688e-10   1.18148e-10   4.91819e-11   1.95260e-11   7.39334e-12   2.70684e-12   9.31197e-13
   2.46173e-13   1.41042e-13   2.46173e-13   6.84401e-13   1.96210e-12   5.43388e-12   1.43510e-11   3.61472e-11   8.68348e-11   1.98948e-10   4.34720e-10   9.05954e-10   1.80065e-09   3.41333e-09   6.17097e-09   1.06403e-08   1.74977e-08   2.74431e-08   4.10500e-08   5.85623e-08   7.96799e-08   1.03396e-07   1.27964e-07   1.51042e-07   1.70033e-07   1.82555e-07   1.86931e-07   1.82555e-07   1.70033e-07   1.51042e-07   1.27964e-07   1.03396e-07   7.96799e-08   5.85623e-08   4.10500e-08   2.74431e-08   1.74977e-08   1.06403e-08   6.17097e-09   3.41333e-09   1.80065e-09   9.05954e-10   4.34720e-10   1.98948e-10   8.68348e-11   3.61472e-11   1.43510e-11   5.43388e-12   1.98944e-12   6.84401e-13
   1.72558e-13   9.88650e-14   1.72558e-13   4.79740e-13   1.39453e-12   3.80895e-12   1.00595e-11   2.53378e-11   6.08679e-11   1.39455e-10   3.04722e-10   6.35040e-10   1.26219e-09   2.39262e-09   4.32562e-09   7.45846e-09   1.22652e-08   1.92366e-08   2.87745e-08   4.10500e-08   5.58527e-08   7.24771e-08   8.96982e-08   1.05875e-07   1.19187e-07   1.27964e-07   1.31032e-07   1.27964e-07   1.19187e-07   1.05875e-07   8.96982e-08   7.24771e-08   5.58527e-08   4.10500e-08   2.87745e-08   1.92366e-08   1.22652e-08   7.45846e-09   4.32562e-09   2.39262e-09   1.26219e-09   6.35040e-10   3.04722e-10   1.39455e-10   6.08679e-11   2.53378e-11   1.00595e-11   3.80895e-12   1.39453e-12   4.79740e-13
   1.15361e-13   6.60942e-14   1.15361e-13   3.20720e-13   9.32284e-13   2.54640e-12   6.72508e-12   1.69391e-11   4.06921e-11   9.32298e-11   2.03716e-10   4.24544e-10   8.43811e-10   1.59954e-09   2.89181e-09   4.98620e-09   8.19968e-09   1.28603e-08   1.92366e-08   2.74431e-08   3.73392e-08   4.84531e-08   5.99660e-08   7.07805e-08   7.96799e-08   8.55480e-08   8.75985e-08   8.55480e-08   7.96799e-08   7.07805e-08   5.99660e-08   4.84531e-08   3.73392e-08   2.74431e-08   1.92366e-08   1.28603e-08   8.19968e-09   4.98620e-09   2.89181e-09   1.59954e-09   8.43811e-10   4.24544e-10   2.03716e-10   9.32298e-11   4.06921e-11   1.69391e-11   6.72508e-12   2.54640e-12   9.32284e-13   3.20720e-13
   6.63341e-14   4.21416e-14   6.63341e-14   2.04491e-13   5.94422e-13   1.64620e-12   4.28790e-12   1.08003e-11   2.59452e-11   5.94431e-11   1.29889e-10   2.70688e-10   5.38013e-10   1.01986e-09   1.84381e-09   3.17919e-09   5.22810e-09   8.19968e-09   1.22652e-08   1.74977e-08   2.38074e-08   3.08936e-08   3.82342e-08   4.51295e-08   5.08038e-08   5.45452e-08   5.58527e-08   5.45452e-08   5.08038e-08   4.51295e-08   3.82342e-08   3.08936e-08   2.38074e-08   1.74977e-08   1.22652e-08   8.19968e-09   5.22810e-09   3.17919e-09   1.84381e-09   1.01986e-09   5.38013e-10   2.70688e-10   1.29889e-10   5.94431e-11   2.59452e-11   1.08003e-11   4.28790e-12   1.64620e-12   5.94422e-13   2.04491e-13
   4.03376e-14   2.56262e-14   4.03376e-14   1.24350e-13   3.61467e-13   1.00105e-12   2.60746e-12   6.56766e-12   1.57772e-11   3.61472e-11   7.89852e-11   1.64605e-10   3.27164e-10   6.20175e-10   1.12122e-09   1.93326e-09   3.17919e-09   4.98620e-09   7.45846e-09   1.06403e-08   1.44772e-08   1.87863e-08   2.32501e-08   2.74431e-08   3.08936e-08   3.31688e-08   3.39638e-08   3.31688e-08   3.08936e-08   2.74431e-08   2.32501e-08   1.87863e-08   1.44772e-08   1.06403e-08   7.45846e-09   4.98620e-09   3.17919e-09   1.93326e-09   1.12122e-09   6.20175e-10   3.27164e-10   1.64605e-10   7.89852e-11   3.61472e-11   1.57772e-11   6.56766e-12   2.60746e-12   1.00105e-12   3.61467e-13   1.24350e-13
   2.33943e-14  -2.18082e-15   2.33943e-14   7.21184e-14   2.09637e-13   5.80571e-13   1.53330e-12   3.80899e-12   9.15016e-12   2.09640e-11   4.58084e-11   9.54644e-11   1.89742e-10   3.59678e-10   6.50262e-10   1.12122e-09   1.84381e-09   2.89181e-09   4.32562e-09   6.17097e-09   8.39622e-09   1.08953e-08   1.34842e-08   1.59160e-08   1.79171e-08   1.92366e-08   1.96977e-08   1.92366e-08   1.79171e-08   1.59160e-08   1.34842e-08   1.08953e-08   8.39622e-09   6.17097e-09   4.32562e-09   2.89181e-09   1.84381e-09   1.12122e-09   6.50262e-10   3.59678e-10   1.89742e-10   9.54644e-11   4.58084e-11   2.09640e-11   9.15016e-12   3.80899e-12   1.51223e-12   5.80571e-13   2.09637e-13   7.21184e-14
   1.29400e-14  -1.20627e-15   1.29400e-14   3.98906e-14   1.15956e-13   3.21130e-13   8.48109e-13   2.10686e-12   5.06121e-12   1.15957e-11   2.53378e-11   5.28040e-11   1.04952e-10   1.98948e-10   3.59678e-10   6.20175e-10   1.01986e-09   1.59954e-09   2.39262e-09   3.41333e-09   4.64418e-09   6.02651e-09   7.45846e-09   8.80355e-09   9.91044e-09   1.06403e-08   1.08953e-08   1.06403e-08   9.91044e-09   8.80355e-09   7.45846e-09   6.02651e-09   4.64418e-09   3.41333e-09   2.39262e-09   1.59954e-09   1.01986e-09   6.20175e-10   3.59678e-10   1.98948e-10   1.04952e-10   5.28040e-11   2.53378e-11   1.15957e-11   5.06121e-12   2.13622e-12   8.48109e-13   3.21130e-13   1.15956e-13   3.98906e-14
  -1.11068e-15  -6.36351e-16  -1.11068e-15   2.10437e-14   6.11707e-14   1.69407e-13   4.47407e-13   1.12693e-12   2.66996e-12   6.11716e-12   1.33666e-11   2.78559e-11   5.53657e-11   1.04952e-10   1.89742e-10   3.27164e-10   5.38013e-10   8.43811e-10   1.26219e-09   1.80065e-09   2.44997e-09   3.17919e-09   3.93460e-09   4.64418e-09   5.22810e-09   5.61313e-09   5.74767e-09   5.61313e-09   5.22810e-09   4.64418e-09   3.93460e-09   3.17919e-09   2.44997e-09   1.80065e-09   1.26219e-09   8.43811e-10   5.38013e-10   3.27164e-10   1.89742e-10   1.04952e-10   5.53657e-11   2.78559e-11   1.33666e-11   6.11716e-12   2.66996e-12   1.12693e-12   4.47407e-13   1.69407e-13   6.11707e-14   2.10437e-14